# vtk DataFile Version 3.0
#This file was generated by the deal.II library on 2016/8/4 at 16:15:46
ASCII
DATASET UNSTRUCTURED_GRID

POINTS 4304 double
0.25 1.25 0
0 1.25 0
0.21875 1.1875 0
0 1.1875 0
0.5 0 0
0.5 0.3125 0
0.4375 0 0
0.4375 0.296875 0
0.5 0.3125 0
0.5 0.625 0
0.4375 0.296875 0
0.4375 0.59375 0
0.4375 0.296875 0
0.4375 0.59375 0
0.375 0.28125 0
0.375 0.5625 0
0 1.25 0
-0.25 1.25 0
0 1.1875 0
-0.21875 1.1875 0
-0.5 0.625 0
-0.5 0.3125 0
-0.4375 0.59375 0
-0.4375 0.296875 0
-0.5 0.3125 0
-0.5 0 0
-0.4375 0.296875 0
-0.4375 5.35783e-17 0
-0.4375 0.59375 0
-0.4375 0.296875 0
-0.375 0.5625 0
-0.375 0.28125 0
0.3125 0.796875 0
0.3125 0.929688 0
0.28125 0.773438 0
0.28125 0.902344 0
0.28125 0.773438 0
0.28125 0.902344 0
0.25 0.75 0
0.25 0.875 0
-0.3125 0.929688 0
-0.3125 0.796875 0
-0.28125 0.902344 0
-0.28125 0.773438 0
-0.28125 0.902344 0
-0.28125 0.773438 0
-0.25 0.875 0
-0.25 0.75 0
0.210938 1.03125 0
0.140625 1.03125 0
0.1875 1 0
0.125 1 0
-0.140625 1.03125 0
-0.210938 1.03125 0
-0.125 1 0
-0.1875 1 0
-0.1875 1.125 0
-0.28125 1.125 0
-0.171875 1.09375 0
-0.257812 1.09375 0
-0.131547 -0.317584 0
-0.0670623 -0.337145 0
-0.119589 -0.288712 0
-0.0609657 -0.306495 0
0.131547 -0.317584 0
0.190977 -0.285818 0
0.119589 -0.288712 0
0.173616 -0.259834 0
0.190977 -0.285818 0
0.243068 -0.243068 0
0.173616 -0.259834 0
0.220971 -0.220971 0
0.28125 1.125 0
0.1875 1.125 0
0.257812 1.09375 0
0.171875 1.09375 0
0.367794 -0.0731589 0
0.375 0 0
0.337145 -0.0670623 0
0.34375 0 0
-0.375 4.59243e-17 0
-0.367794 -0.0731589 0
-0.34375 4.20972e-17 0
-0.337145 -0.0670623 0
0.375 0 0
0.375 0.140625 0
0.34375 0 0
0.34375 0.136719 0
0.375 0.140625 0
0.375 0.28125 0
0.34375 0.136719 0
0.34375 0.273438 0
0.34375 0.136719 0
0.34375 0.273438 0
0.3125 0.132812 0
0.3125 0.265625 0
-0.375 0.28125 0
-0.375 0.140625 0
-0.34375 0.273438 0
-0.34375 0.136719 0
-0.375 0.140625 0
-0.375 4.59243e-17 0
-0.34375 0.136719 0
-0.34375 4.20972e-17 0
-0.34375 0.273438 0
-0.34375 0.136719 0
-0.3125 0.265625 0
-0.3125 0.132813 0
-0.243068 -0.243068 0
-0.190977 -0.285818 0
-0.220971 -0.220971 0
-0.173616 -0.259834 0
-0.190977 -0.285818 0
-0.131547 -0.317584 0
-0.173616 -0.259834 0
-0.119589 -0.288712 0
-8.03674e-17 -0.4375 0
0.085352 -0.429094 0
-7.46269e-17 -0.40625 0
0.0792554 -0.398444 0
0.085352 -0.429094 0
0.167424 -0.404197 0
0.0792554 -0.398444 0
0.155465 -0.375326 0
0.167424 -0.404197 0
0.243062 -0.363768 0
0.155465 -0.375326 0
0.2257 -0.337785 0
-6.31459e-17 -0.34375 0
0.0670623 -0.337145 0
-5.74053e-17 -0.3125 0
0.0609657 -0.306495 0
-0.353553 -0.353553 0
-0.277785 -0.415735 0
-0.331456 -0.331456 0
-0.260424 -0.389751 0
-0.277785 -0.415735 0
-0.191342 -0.46194 0
-0.260424 -0.389751 0
-0.179383 -0.433069 0
-0.331456 -0.331456 0
-0.260424 -0.389751 0
-0.309359 -0.309359 0
-0.243062 -0.363768 0
-0.260424 -0.389751 0
-0.179383 -0.433069 0
-0.243062 -0.363768 0
-0.167424 -0.404197 0
-0.243062 -0.363768 0
-0.167424 -0.404197 0
-0.2257 -0.337785 0
-0.155465 -0.375326 0
-0.167424 -0.404197 0
-0.085352 -0.429094 0
-0.155465 -0.375326 0
-0.0792554 -0.398444 0
-0.085352 -0.429094 0
-8.03674e-17 -0.4375 0
-0.0792554 -0.398444 0
-7.46269e-17 -0.40625 0
-0.5 1.09375 0
-0.5 0.9375 0
-0.46875 1.06641 0
-0.46875 0.914062 0
-0.46875 1.06641 0
-0.46875 0.914062 0
-0.4375 1.03906 0
-0.4375 0.890625 0
0.5 0.9375 0
0.5 1.09375 0
0.46875 0.914062 0
0.46875 1.06641 0
0.46875 0.914062 0
0.46875 1.06641 0
0.4375 0.890625 0
0.4375 1.03906 0
0.328125 1.1875 0
0.21875 1.1875 0
0.304688 1.15625 0
0.203125 1.15625 0
0.304688 1.15625 0
0.203125 1.15625 0
0.28125 1.125 0
0.1875 1.125 0
-0.21875 1.1875 0
-0.328125 1.1875 0
-0.203125 1.15625 0
-0.304688 1.15625 0
-0.203125 1.15625 0
-0.304688 1.15625 0
-0.1875 1.125 0
-0.28125 1.125 0
3.06162e-17 -0.5 0
0.0975452 -0.490393 0
-8.6108e-17 -0.46875 0
0.0914486 -0.459743 0
0.0975452 -0.490393 0
0.191342 -0.46194 0
0.0914486 -0.459743 0
0.179383 -0.433069 0
-8.6108e-17 -0.46875 0
0.0914486 -0.459743 0
-8.03674e-17 -0.4375 0
0.085352 -0.429094 0
0.0914486 -0.459743 0
0.179383 -0.433069 0
0.085352 -0.429094 0
0.167424 -0.404197 0
0.191342 -0.46194 0
0.277785 -0.415735 0
0.179383 -0.433069 0
0.260424 -0.389751 0
0.277785 -0.415735 0
0.353553 -0.353553 0
0.260424 -0.389751 0
0.331456 -0.331456 0
0.179383 -0.433069 0
0.260424 -0.389751 0
0.167424 -0.404197 0
0.243062 -0.363768 0
0.260424 -0.389751 0
0.331456 -0.331456 0
0.243062 -0.363768 0
0.309359 -0.309359 0
-0.191342 -0.46194 0
-0.0975452 -0.490393 0
-0.179383 -0.433069 0
-0.0914486 -0.459743 0
-0.0975452 -0.490393 0
3.06162e-17 -0.5 0
-0.0914486 -0.459743 0
-8.6108e-17 -0.46875 0
-0.179383 -0.433069 0
-0.0914486 -0.459743 0
-0.167424 -0.404197 0
-0.085352 -0.429094 0
-0.0914486 -0.459743 0
-8.6108e-17 -0.46875 0
-0.085352 -0.429094 0
-8.03674e-17 -0.4375 0
0.375 0.28125 0
0.375 0.421875 0
0.34375 0.273438 0
0.34375 0.410156 0
0.375 0.421875 0
0.375 0.5625 0
0.34375 0.410156 0
0.34375 0.546875 0
0.34375 0.273438 0
0.34375 0.410156 0
0.3125 0.265625 0
0.3125 0.398438 0
0.34375 0.410156 0
0.34375 0.546875 0
0.3125 0.398438 0
0.3125 0.53125 0
0.3125 0.265625 0
0.3125 0.398438 0
0.28125 0.257812 0
0.28125 0.386719 0
0.3125 0.398438 0
0.3125 0.53125 0
0.28125 0.386719 0
0.28125 0.515625 0
0.28125 0.257812 0
0.28125 0.386719 0
0.25 0.25 0
0.25 0.375 0
0.28125 0.386719 0
0.28125 0.515625 0
0.25 0.375 0
0.25 0.5 0
0.353553 -0.353553 0
0.415735 -0.277785 0
0.331456 -0.331456 0
0.389751 -0.260424 0
0.415735 -0.277785 0
0.46194 -0.191342 0
0.389751 -0.260424 0
0.433069 -0.179383 0
0.331456 -0.331456 0
0.389751 -0.260424 0
0.309359 -0.309359 0
0.363768 -0.243062 0
0.389751 -0.260424 0
0.433069 -0.179383 0
0.363768 -0.243062 0
0.404197 -0.167424 0
0.46194 -0.191342 0
0.490393 -0.0975452 0
0.433069 -0.179383 0
0.459743 -0.0914486 0
0.490393 -0.0975452 0
0.5 0 0
0.459743 -0.0914486 0
0.46875 0 0
0.433069 -0.179383 0
0.459743 -0.0914486 0
0.404197 -0.167424 0
0.429094 -0.085352 0
0.459743 -0.0914486 0
0.46875 0 0
0.429094 -0.085352 0
0.4375 0 0
0.404197 -0.167424 0
0.429094 -0.085352 0
0.375326 -0.155465 0
0.398444 -0.0792554 0
0.429094 -0.085352 0
0.4375 0 0
0.398444 -0.0792554 0
0.40625 0 0
0.398444 -0.0792554 0
0.40625 0 0
0.367794 -0.0731589 0
0.375 0 0
-0.5 0 0
-0.490393 -0.0975452 0
-0.46875 5.74053e-17 0
-0.459743 -0.0914486 0
-0.490393 -0.0975452 0
-0.46194 -0.191342 0
-0.459743 -0.0914486 0
-0.433069 -0.179383 0
-0.46875 5.74053e-17 0
-0.459743 -0.0914486 0
-0.4375 5.35783e-17 0
-0.429094 -0.085352 0
-0.459743 -0.0914486 0
-0.433069 -0.179383 0
-0.429094 -0.085352 0
-0.404197 -0.167424 0
-0.46194 -0.191342 0
-0.415735 -0.277785 0
-0.433069 -0.179383 0
-0.389751 -0.260424 0
-0.415735 -0.277785 0
-0.353553 -0.353553 0
-0.389751 -0.260424 0
-0.331456 -0.331456 0
-0.433069 -0.179383 0
-0.389751 -0.260424 0
-0.404197 -0.167424 0
-0.363768 -0.243062 0
-0.389751 -0.260424 0
-0.331456 -0.331456 0
-0.363768 -0.243062 0
-0.309359 -0.309359 0
-0.4375 5.35783e-17 0
-0.429094 -0.085352 0
-0.40625 4.97513e-17 0
-0.398444 -0.0792554 0
-0.429094 -0.085352 0
-0.404197 -0.167424 0
-0.398444 -0.0792554 0
-0.375326 -0.155465 0
-0.40625 4.97513e-17 0
-0.398444 -0.0792554 0
-0.375 4.59243e-17 0
-0.367794 -0.0731589 0
0.5 1.25 0
0.375 1.25 0
0.46875 1.21875 0
0.351562 1.21875 0
0.375 1.25 0
0.25 1.25 0
0.351562 1.21875 0
0.234375 1.21875 0
0.351562 1.21875 0
0.234375 1.21875 0
0.328125 1.1875 0
0.21875 1.1875 0
0.1875 1.125 0
0.09375 1.125 0
0.171875 1.09375 0
0.0859375 1.09375 0
0.09375 1.125 0
0 1.125 0
0.0859375 1.09375 0
0 1.09375 0
0.171875 1.09375 0
0.0859375 1.09375 0
0.15625 1.0625 0
0.078125 1.0625 0
0.0859375 1.09375 0
0 1.09375 0
0.078125 1.0625 0
0 1.0625 0
-0.25 1.25 0
-0.375 1.25 0
-0.234375 1.21875 0
-0.351562 1.21875 0
-0.375 1.25 0
-0.5 1.25 0
-0.351562 1.21875 0
-0.46875 1.21875 0
-0.234375 1.21875 0
-0.351562 1.21875 0
-0.21875 1.1875 0
-0.328125 1.1875 0
0 1.125 0
-0.09375 1.125 0
0 1.09375 0
-0.0859375 1.09375 0
-0.09375 1.125 0
-0.1875 1.125 0
-0.0859375 1.09375 0
-0.171875 1.09375 0
0 1.09375 0
-0.0859375 1.09375 0
0 1.0625 0
-0.078125 1.0625 0
-0.0859375 1.09375 0
-0.171875 1.09375 0
-0.078125 1.0625 0
-0.15625 1.0625 0
0.21875 1.1875 0
0.109375 1.1875 0
0.203125 1.15625 0
0.101562 1.15625 0
0.109375 1.1875 0
0 1.1875 0
0.101562 1.15625 0
0 1.15625 0
0.203125 1.15625 0
0.101562 1.15625 0
0.1875 1.125 0
0.09375 1.125 0
0.101562 1.15625 0
0 1.15625 0
0.09375 1.125 0
0 1.125 0
-0.375 0.5625 0
-0.375 0.421875 0
-0.34375 0.546875 0
-0.34375 0.410156 0
-0.375 0.421875 0
-0.375 0.28125 0
-0.34375 0.410156 0
-0.34375 0.273438 0
-0.34375 0.546875 0
-0.34375 0.410156 0
-0.3125 0.53125 0
-0.3125 0.398438 0
-0.34375 0.410156 0
-0.34375 0.273438 0
-0.3125 0.398438 0
-0.3125 0.265625 0
-0.3125 0.53125 0
-0.3125 0.398438 0
-0.28125 0.515625 0
-0.28125 0.386719 0
-0.3125 0.398438 0
-0.3125 0.265625 0
-0.28125 0.386719 0
-0.28125 0.257812 0
-0.28125 0.515625 0
-0.28125 0.386719 0
-0.25 0.5 0
-0.25 0.375 0
-0.28125 0.386719 0
-0.28125 0.257812 0
-0.25 0.375 0
-0.25 0.25 0
0 1.1875 0
-0.109375 1.1875 0
0 1.15625 0
-0.101562 1.15625 0
-0.109375 1.1875 0
-0.21875 1.1875 0
-0.101562 1.15625 0
-0.203125 1.15625 0
0 1.15625 0
-0.101562 1.15625 0
0 1.125 0
-0.09375 1.125 0
-0.101562 1.15625 0
-0.203125 1.15625 0
-0.09375 1.125 0
-0.1875 1.125 0
-0.4375 0.296875 0
-0.4375 0.148438 0
-0.40625 0.289062 0
-0.40625 0.144531 0
-0.4375 0.148438 0
-0.4375 5.35783e-17 0
-0.40625 0.144531 0
-0.40625 4.97513e-17 0
-0.40625 0.289062 0
-0.40625 0.144531 0
-0.375 0.28125 0
-0.375 0.140625 0
-0.40625 0.144531 0
-0.40625 4.97513e-17 0
-0.375 0.140625 0
-0.375 4.59243e-17 0
0.375 0.5625 0
0.375 0.703125 0
0.34375 0.546875 0
0.34375 0.683594 0
0.375 0.703125 0
0.375 0.84375 0
0.34375 0.683594 0
0.34375 0.820312 0
0.34375 0.546875 0
0.34375 0.683594 0
0.3125 0.53125 0
0.3125 0.664062 0
0.34375 0.683594 0
0.34375 0.820312 0
0.3125 0.664062 0
0.3125 0.796875 0
0.3125 0.53125 0
0.3125 0.664062 0
0.28125 0.515625 0
0.28125 0.644531 0
0.3125 0.664062 0
0.3125 0.796875 0
0.28125 0.644531 0
0.28125 0.773438 0
0.28125 0.515625 0
[...]
POINT_DATA 4304
SCALARS u double 1
LOOKUP_TABLE default
-1 -1 -0.772921 -0.723111 -1 -1 -0.673061 -0.726177 -1 -1 -0.726177 -0.72468 -0.726177 -0.72468 -0.447506 -0.450709 -1 -1 -0.723111 -0.772921 -1 -1 -0.724678 -0.7262 -1 -1 -0.7262 -0.673944 -0.724678 -0.7262 -0.4507 -0.447573 -0.179983 -0.219138 -0.0393832 -0.0539863 -0.0393832 -0.0539863 0.1 0.1 -0.219138 -0.179983 -0.0539864 -0.039383 -0.0539864 -0.039383 0.1 0.1 -0.0860899 -0.0526239 0.1 0.1 -0.0526239 -0.0860899 0.1 0.1 -0.510997 -0.618708 -0.361993 -0.468308 0.0797751 0.0799906 0.354441 0.354833 0.079408 0.078369 0.354349 0.353156 0.078369 0.0740333 0.353156 0.349659 -0.618708 -0.510997 -0.468308 -0.361993 -0.252922 -0.313255 -0.0174235 -0.124949 -0.315475 -0.254618 -0.128245 -0.0197472 -0.313255 -0.41895 -0.124949 -0.28601 -0.41895 -0.447506 -0.28601 -0.308396 -0.28601 -0.308396 -0.148199 -0.172459 -0.447573 -0.419698 -0.308478 -0.286766 -0.419698 -0.315475 -0.286766 -0.128245 -0.308478 -0.286766 -0.172534 -0.148841 0.0738892 0.0783083 0.349526 0.353137 0.0783083 0.0797751 0.353137 0.354441 -0.615493 -0.615579 -0.402096 -0.402215 -0.615579 -0.615894 -0.402215 -0.402658 -0.615894 -0.616938 -0.402658 -0.404016 0.0801449 0.0799905 0.354937 0.354808 -1 -1 -0.815925 -0.814884 -1 -1 -0.814884 -0.814374 -0.815925 -0.814884 -0.619011 -0.616956 -0.814884 -0.814374 -0.616956 -0.615898 -0.616956 -0.615898 -0.404031 -0.402671 -0.615898 -0.615569 -0.402671 -0.402191 -0.615569 -0.615493 -0.402191 -0.402096 -1 -1 -0.919862 -0.876532 -0.919862 -0.876532 -0.818654 -0.744314 -1 -1 -0.876532 -0.919862 -0.876532 -0.919862 -0.744314 -0.818654 -0.84962 -0.772921 -0.74451 -0.64859 -0.74451 -0.64859 -0.618708 -0.510997 -0.772921 -0.84962 -0.64859 -0.74451 -0.64859 -0.74451 -0.510997 -0.618708 -1 -1 -0.81416 -0.8142 -1 -1 -0.8142 -0.814372 -0.81416 -0.8142 -0.615493 -0.615579 -0.8142 -0.814372 -0.615579 -0.615894 -1 -1 -0.814372 -0.814874 -1 -1 -0.814874 -0.815886 -0.814372 -0.814874 -0.615894 -0.616938 -0.814874 -0.815886 -0.616938 -0.618933 -1 -1 -0.814374 -0.814197 -1 -1 -0.814197 -0.81416 -0.814374 -0.814197 -0.615898 -0.615569 -0.814197 -0.81416 -0.615569 -0.615493 -0.447506 -0.449108 -0.308396 -0.312048 -0.449108 -0.450709 -0.312048 -0.312916 -0.308396 -0.312048 -0.172459 -0.174384 -0.312048 -0.312916 -0.174384 -0.175193 -0.172459 -0.174384 -0.0352543 -0.0372999 -0.174384 -0.175193 -0.0372999 -0.0375167 -0.0352543 -0.0372999 0.1 0.1 -0.0372999 -0.0375167 0.1 0.1 -1 -1 -0.815886 -0.818363 -1 -1 -0.818363 -0.823642 -0.815886 -0.818363 -0.618933 -0.623761 -0.818363 -0.823642 -0.623761 -0.634902 -1 -1 -0.823642 -0.833663 -1 -1 -0.833663 -0.83653 -0.823642 -0.833663 -0.634902 -0.653938 -0.833663 -0.83653 -0.653938 -0.673061 -0.634902 -0.653938 -0.43049 -0.461757 -0.653938 -0.673061 -0.461757 -0.496196 -0.461757 -0.496196 -0.252922 -0.313255 -1 -1 -0.836972 -0.834014 -1 -1 -0.834014 -0.823855 -0.836972 -0.834014 -0.673944 -0.654685 -0.834014 -0.823855 -0.654685 -0.635334 -1 -1 -0.823855 -0.818462 -1 -1 -0.818462 -0.815925 -0.823855 -0.818462 -0.635334 -0.62396 -0.818462 -0.815925 -0.62396 -0.619011 -0.673944 -0.654685 -0.497666 -0.462936 -0.654685 -0.635334 -0.462936 -0.431151 -0.497666 -0.462936 -0.315475 -0.254618 -1 -1 -0.986135 -0.936054 -1 -1 -0.936054 -0.88646 -0.936054 -0.88646 -0.84962 -0.772921 -0.510997 -0.469887 -0.361993 -0.329765 -0.469887 -0.458779 -0.329765 -0.321445 -0.361993 -0.329765 -0.210288 -0.186993 -0.329765 -0.321445 -0.186993 -0.182447 -1 -1 -0.88646 -0.936054 -1 -1 -0.936054 -0.986135 -0.88646 -0.936054 -0.772921 -0.84962 -0.458779 -0.469887 -0.321445 -0.329765 -0.469887 -0.510997 -0.329765 -0.361993 -0.321445 -0.329765 -0.182447 -0.186993 -0.329765 -0.361993 -0.186993 -0.210288 -0.772921 -0.748016 -0.64859 -0.608978 -0.748016 -0.723111 -0.608978 -0.593064 -0.64859 -0.608978 -0.510997 -0.469887 -0.608978 -0.593064 -0.469887 -0.458779 -0.4507 -0.449137 -0.312914 -0.312068 -0.449137 -0.447573 -0.312068 -0.308478 -0.312914 -0.312068 -0.175194 -0.174398 -0.312068 -0.308478 -0.174398 -0.172534 -0.175194 -0.174398 -0.0375182 -0.0373056 -0.174398 -0.172534 -0.0373056 -0.0353141 -0.0375182 -0.0373056 0.1 0.1 -0.0373056 -0.0353141 0.1 0.1 -0.723111 -0.748016 -0.593064 -0.608978 -0.748016 -0.772921 -0.608978 -0.64859 -0.593064 -0.608978 -0.458779 -0.469887 -0.608978 -0.64859 -0.469887 -0.510997 -0.7262 -0.700072 -0.586887 -0.55851 -0.700072 -0.673944 -0.55851 -0.497666 -0.586887 -0.55851 -0.447573 -0.419698 -0.55851 -0.497666 -0.419698 -0.315475 -0.450709 -0.451461 -0.312916 -0.313252 -0.451461 -0.468283 -0.313252 -0.325408 -0.312916 -0.313252 -0.175193 -0.175832 -0.313252 -0.325408 -0.175832 -0.179983 -0.175193 -0.175832 -0.0375167 -0.0378911 -0.175832 -0.179983 -0.0378911 -0.0393832 -0.0375167 -0.0378911 0.1 0.1 -0.0378911 -0.0393832 0.1 0.1 -0.210288 -0.186993 -0.0526239 -0.0438891 -0.186993 -0.182447 -0.0438891 -0.0415836 -0.0526239 -0.0438891 0.1 0.1 -0.0438891 -0.0415836 0.1 0.1 -0.182447 -0.186993 -0.0415836 -0.0438891 -0.186993 -0.210288 -0.0438891 -0.0526239 -0.0415836 -0.0438891 0.1 0.1 -0.0438891 -0.0526239 0.1 0.1 -0.468283 -0.451461 -0.325409 -0.31325 -0.451461 -0.4507 -0.31325 -0.312914 -0.325409 -0.31325 -0.179983 -0.175831 -0.31325 -0.312914 -0.175831 -0.175194 -0.179983 -0.175831 -0.039383 -0.0378901 -0.175831 -0.175194 -0.0378901 -0.0375182 -0.039383 -0.0378901 0.1 0.1 -0.0378901 -0.0375182 0.1 0.1 -1 -1 -0.876532 -0.864162 -1 -1 -0.864162 -0.862339 -0.876532 -0.864162 -0.744314 -0.72765 -0.864162 -0.862339 -0.72765 -0.724678 -0.744314 -0.72765 -0.608811 -0.589688 -0.72765 -0.724678 -0.589688 -0.587689 -0.608811 -0.589688 -0.468283 -0.451461 -0.589688 -0.587689 -0.451461 -0.4507 -1 -1 -0.86234 -0.864162 -1 -1 -0.864162 -0.876532 -0.86234 -0.864162 -0.72468 -0.72765 -0.864162 -0.876532 -0.72765 -0.744314 -0.72468 -0.72765 -0.587695 -0.589689 -0.72765 -0.744314 -0.589689 -0.608811 -0.587695 -0.589689 -0.450709 -0.451461 -0.589689 -0.608811 -0.451461 -0.468283 -0.673061 -0.699619 -0.496196 -0.557889 -0.699619 -0.726177 -0.557889 -0.586841 -0.496196 -0.557889 -0.313255 -0.41895 -0.557889 -0.586841 -0.41895 -0.447506 -0.0539863 -0.0947081 0.0230068 0.00888181 0.0230068 0.00888181 0.1 0.1 -0.0947081 -0.0539864 0.0088818 0.0230068 0.0088818 0.0230068 0.1 0.1 -0.15135 -0.0860899 -0.0168714 0.00695505 -0.0168714 0.00695505 0.1 0.1 -0.0860899 -0.15135 0.00695505 -0.0168714 0.00695505 -0.0168714 0.1 0.1 0.577467 0.616899 0.77682 0.801044 0.616899 0.63528 0.801044 0.811547 0.77682 0.801044 1 1 0.801044 0.811547 1 1 -0.148841 -0.0868784 -0.0840901 -0.027439 -0.0840901 -0.027439 -0.0211746 0.0224694 -0.219138 -0.311126 -0.136562 -0.204439 -0.136562 -0.204439 -0.0539863 -0.0947081 -0.311126 -0.219138 -0.204439 -0.136562 -0.204439 -0.136562 -0.0947081 -0.0539864 0.0788224 0.177206 0.191938 0.322269 0.177206 0.248529 0.322269 0.404234 -0.0845159 -0.148199 -0.025238 -0.0835428 -0.025238 -0.0835428 0.0242024 -0.020769 -0.39493 -0.501763 -0.307818 -0.411407 -0.501763 -0.651206 -0.411407 -0.574818 -0.307818 -0.411407 -0.219138 -0.311126 -0.411407 -0.574818 -0.311126 -0.48842 -0.48842 -0.379967 -0.393012 -0.27406 -0.379967 -0.292541 -0.27406 -0.191264 -0.393012 -0.27406 -0.277262 -0.15135 -0.27406 -0.191264 -0.15135 -0.0860899 -0.292541 -0.379967 -0.191264 -0.27406 -0.379967 -0.48842 -0.27406 -0.393012 -0.191264 -0.27406 -0.0860899 -0.15135 -0.27406 -0.393012 -0.15135 -0.277262 -0.651206 -0.501763 -0.574818 -0.411407 -0.501763 -0.39493 -0.411407 -0.307818 -0.574818 -0.411407 -0.48842 -0.311126 -0.411407 -0.307818 -0.311126 -0.219138 -0.148199 -0.160329 -0.0835428 -0.0950771 -0.160329 -0.172459 -0.0950771 -0.103857 -0.0835428 -0.0950771 -0.020769 -0.0298953 -0.0950771 -0.103857 -0.0298953 -0.0352543 -0.020769 -0.0298953 0.0409957 0.0350767 -0.0298953 -0.0352543 0.0350767 0.0323729 0.0409957 0.0350767 0.1 0.1 0.0350767 0.0323729 0.1 0.1 0.251341 0.18156 0.407117 0.327616 0.18156 0.0840909 0.327616 0.199066 -0.557553 -0.656528 -0.478477 -0.583253 -0.656528 -0.778252 -0.583253 -0.718577 -0.478477 -0.583253 -0.39493 -0.501763 -0.583253 -0.718577 -0.501763 -0.651206 0.248529 0.292191 0.404234 0.447439 0.292191 0.317388 0.447439 0.470874 0.404234 0.447439 0.577467 0.616899 0.447439 0.470874 0.616899 0.63528 0.317388 0.332248 0.470874 0.483917 0.332248 0.341183 0.483917 0.49165 0.470874 0.483917 0.63528 0.645254 0.483917 0.49165 0.645254 0.650998 -0.468308 -0.553869 -0.38592 -0.471551 -0.553869 -0.651206 -0.471551 -0.574818 -0.38592 -0.471551 -0.292541 -0.379967 -0.471551 -0.574818 -0.379967 -0.48842 -0.778252 -0.656528 -0.718577 -0.583253 -0.656528 -0.557553 -0.583253 -0.478477 -0.718577 -0.583253 -0.651206 -0.501763 -0.583253 -0.478477 -0.501763 -0.39493 -0.818654 -0.878994 -0.762717 -0.832916 -0.878994 -0.945114 -0.832916 -0.913724 -0.762717 -0.832916 -0.700126 -0.780894 -0.832916 -0.913724 -0.780894 -0.875545 -0.700126 -0.780894 -0.631516 -0.722307 -0.780894 -0.875545 -0.722307 -0.830295 -0.631516 -0.722307 -0.557553 -0.656528 -0.722307 -0.830295 -0.656528 -0.778252 -0.651206 -0.553869 -0.574818 -0.471551 -0.553869 -0.468308 -0.471551 -0.38592 -0.574818 -0.471551 -0.48842 -0.379967 -0.471551 -0.38592 -0.379967 -0.292541 0.0400435 0.0171227 0.174859 0.150505 0.0171227 -0.0174235 0.150505 0.110833 0.174859 0.150505 0.318365 0.293851 0.150505 0.110833 0.293851 0.251341 -0.0174235 -0.0711865 0.110833 0.0502419 -0.0711865 -0.124949 0.0502419 -0.0202271 0.110833 0.0502419 0.251341 0.18156 0.0502419 -0.0202271 0.18156 0.0840909 0.341542 0.332835 0.491953 0.484422 0.332835 0.318365 0.484422 0.471735 0.491953 0.484422 0.651222 0.645631 0.484422 0.471735 0.645631 0.635938 0.318365 0.293851 0.471735 0.448987 0.293851 0.251341 0.448987 0.407117 0.471735 0.448987 0.635938 0.618128 0.448987 0.407117 0.618128 0.580145 0.635938 0.618128 0.81191 0.801746 0.618128 0.580145 0.801746 0.77853 0.81191 0.801746 1 1 0.801746 0.77853 1 1 -0.128245 -0.073996 -0.0243096 0.0467046 -0.073996 -0.0197472 0.0467046 0.108266 -0.0243096 0.0467046 0.0788224 0.177206 0.0467046 0.108266 0.177206 0.248529 -0.0197472 0.0155741 0.108266 0.148856 0.0155741 0.0390421 0.148856 0.173842 0.108266 0.148856 0.248529 0.292191 0.148856 0.173842 0.292191 0.317388 -0.124949 -0.20548 -0.0202271 -0.143234 -0.20548 -0.28601 -0.143234 -0.217105 -0.0202271 -0.143234 0.0840909 -0.0845159 -0.143234 -0.217105 -0.0845159 -0.148199 -0.945114 -0.878994 -0.913724 -0.832916 -0.878994 -0.818654 -0.832916 -0.762717 -0.913724 -0.832916 -0.875545 -0.780894 -0.832916 -0.762717 -0.780894 -0.700126 -0.875545 -0.780894 -0.830295 -0.722307 -0.780894 -0.700126 -0.722307 -0.631516 -0.830295 -0.722307 -0.778252 -0.656528 -0.722307 -0.631516 -0.656528 -0.557553 0.341183 0.34706 0.49165 0.496305 0.34706 0.349526 0.496305 0.498795 0.49165 0.496305 0.650998 0.654381 0.496305 0.498795 0.654381 0.656309 0.63528 0.645254 0.811547 0.817036 0.645254 0.650998 0.817036 0.820157 0.811547 0.817036 1 1 0.817036 0.820157 1 1 0.650998 0.654381 0.820157 0.821976 0.654381 0.656309 0.821976 0.823034 0.820157 0.821976 1 1 0.821976 0.823034 1 1 -0.618708 -0.694701 -0.543508 -0.628749 -0.694701 -0.778252 -0.628749 -0.718577 -0.543508 -0.628749 -0.468308 -0.553869 -0.628749 -0.718577 -0.553869 -0.651206 -0.208365 -0.194926 -0.0879061 -0.073517 -0.194926 -0.186187 -0.073517 -0.0640653 -0.0879061 -0.073517 0.0390421 0.0543709 -0.073517 -0.0640653 0.0543709 0.0640503 -0.186187 -0.180481 -0.0640653 -0.0579604 -0.180481 -0.176921 -0.0579604 -0.05435 -0.0640653 -0.0579604 0.0640503 0.0705787 -0.0579604 -0.05435 0.0705787 0.0738892 0.0390421 0.0543709 0.173842 0.189319 0.0543709 0.0640503 0.189319 0.199033 0.173842 0.189319 0.317388 0.332248 0.189319 0.199033 0.332248 0.341183 0.0640503 0.0705787 0.199033 0.204734 0.0705787 0.0738892 0.204734 0.211708 0.199033 0.204734 0.341183 0.34706 0.204734 0.211708 0.34706 0.349526 -0.172534 -0.160687 -0.103924 -0.0953491 -0.160687 -0.148841 -0.0953491 -0.0840901 -0.103924 -0.0953491 -0.0353141 -0.0300803 -0.0953491 -0.0840901 -0.0300803 -0.0211746 -0.0353141 -0.0300803 0.0323429 0.0349854 -0.0300803 -0.0211746 0.0349854 0.0407511 0.0323429 0.0349854 0.1 0.1 0.0349854 0.0407511 0.1 0.1 -0.468283 -0.496935 -0.396846 -0.421727 -0.496935 -0.557553 -0.421727 -0.478477 -0.396846 -0.421727 -0.325408 -0.346092 -0.421727 -0.478477 -0.346092 -0.39493 0.0799906 0.0810098 0.217412 0.21431 0.0810098 0.0801449 0.21431 0.217541 0.217412 0.21431 0.354833 0.356214 0.21431 0.217541 0.356214 0.354937 0.354441 0.354637 0.502744 0.502991 0.354637 0.354833 0.502991 0.503322 0.502744 0.502991 0.65916 0.659375 0.502991 0.503322 0.659375 0.659597 0.354833 0.356214 0.503322 0.503725 0.356214 0.354937 0.503725 0.503415 0.503322 0.503725 0.659597 0.659753 0.503725 0.503415 0.659753 0.659667 0.65916 0.659375 0.824558 0.82468 0.659375 0.659597 0.82468 0.824787 0.824558 0.82468 1 1 0.82468 0.824787 1 1 0.659597 0.659753 0.824787 0.824849 0.659753 0.659667 0.824849 0.824827 0.824787 0.824849 1 1 0.824849 0.824827 1 1 -0.325408 -0.346092 -0.252696 -0.271629 -0.346092 -0.39493 -0.271629 -0.307818 -0.252696 -0.271629 -0.179983 -0.199561 -0.271629 -0.307818 -0.199561 -0.219138 -0.292541 -0.239109 -0.191264 -0.152353 -0.239109 -0.210288 -0.152353 -0.131456 -0.191264 -0.152353 -0.0860899 -0.0693569 -0.152353 -0.131456 -0.0693569 -0.0526239 0.354937 0.354872 0.503415 0.503198 0.354872 0.354808 0.503198 0.503308 0.503415 0.503198 0.659667 0.659558 0.503198 0.503308 0.659558 0.659589 0.354808 0.35593 0.503308 0.503491 0.35593 0.354349 0.503491 0.502902 0.503308 0.503491 0.659589 0.659581 0.503491 0.502902 0.659581 0.65929 0.659667 0.659558 0.824827 0.824787 0.659558 0.659589 0.824787 0.824785 0.824827 0.824787 1 1 0.824787 0.824785 1 1 0.659589 0.659581 0.824785 0.824757 0.659581 0.65929 0.824757 0.824623 0.824785 0.824757 1 1 0.824757 0.824623 1 1 0.354349 0.353753 0.502902 0.502287 0.353753 0.353156 0.502287 0.50161 0.502902 0.502287 0.65929 0.658865 0.502287 0.50161 0.658865 0.65833 0.353156 0.351408 0.50161 0.500431 0.351408 0.349659 0.500431 0.498906 0.50161 0.500431 0.65833 0.657536 0.500431 0.498906 0.657536 0.656389 0.65929 0.658865 0.824623 0.824407 0.658865 0.65833 0.824407 0.824117 0.824623 0.824407 1 1 0.824407 0.824117 1 1 0.65833 0.657536 0.824117 0.823701 0.657536 0.656389 0.823701 0.823077 0.824117 0.823701 1 1 0.823701 0.823077 1 1 -0.778252 -0.694701 -0.718577 -0.628749 -0.694701 -0.618708 -0.628749 -0.543508 -0.718577 -0.628749 -0.651206 -0.553869 -0.628749 -0.543508 -0.553869 -0.468308 -0.176777 -0.180247 -0.054201 -0.0577152 -0.180247 -0.185816 -0.0577152 -0.0636734 -0.054201 -0.0577152 0.0740333 0.0708267 -0.0577152 -0.0636734 0.0708267 0.0644496 -0.185816 -0.194352 -0.0636734 -0.0729031 -0.194352 -0.207501 -0.0729031 -0.0869608 -0.0636734 -0.0729031 0.0644496 0.0550054 -0.0729031 -0.0869608 0.0550054 0.0400435 0.0740333 0.0708267 0.211846 0.204973 0.0708267 0.0644496 0.204973 0.199422 0.211846 0.204973 0.349659 0.347278 0.204973 0.199422 0.347278 0.341542 0.0644496 0.0550054 0.199422 0.189948 0.0550054 0.0400435 0.189948 0.174859 0.199422 0.189948 0.341542 0.332835 0.189948 0.174859 0.332835 0.318365 -0.207501 -0.225736 -0.0869608 -0.108466 -0.225736 -0.252922 -0.108466 -0.135173 -0.0869608 -0.108466 0.0400435 0.0171227 -0.108466 -0.135173 0.0171227 -0.0174235 0.349659 0.347278 0.498906 0.496489 0.347278 0.341542 0.496489 0.491953 0.498906 0.496489 0.656389 0.654516 0.496489 0.491953 0.654516 0.651222 0.656389 0.654516 0.823077 0.822049 0.654516 0.651222 0.822049 0.820278 0.823077 0.822049 1 1 0.822049 0.820278 1 1 0.651222 0.645631 0.820278 0.817241 0.645631 0.635938 0.817241 0.81191 0.820278 0.817241 1 1 0.817241 0.81191 1 1 -0.254618 -0.226993 -0.137183 -0.10988 -0.226993 -0.208365 -0.10988 -0.0879061 -0.137183 -0.10988 -0.0197472 0.0155741 -0.10988 -0.0879061 0.0155741 0.0390421 -0.210288 -0.239109 -0.131456 -0.152353 -0.239109 -0.292541 -0.152353 -0.191264 -0.131456 -0.152353 -0.0526239 -0.0693569 -0.152353 -0.191264 -0.0693569 -0.0860899 -0.361993 -0.41515 -0.28614 -0.327045 -0.41515 -0.468308 -0.327045 -0.38592 -0.28614 -0.327045 -0.210288 -0.239109 -0.327045 -0.38592 -0.239109 -0.292541 0.349526 0.351331 0.498795 0.50037 0.351331 0.353137 0.50037 0.501588 0.498795 0.50037 0.656309 0.657492 0.50037 0.501588 0.657492 0.658311 0.353137 0.353789 0.501588 0.502296 0.353789 0.354441 0.502296 0.502744 0.501588 0.502296 0.658311 0.658838 0.502296 0.502744 0.658838 0.65916 0.656309 0.657492 0.823034 0.823678 0.657492 0.658311 0.823678 0.824104 0.823034 0.823678 1 1 0.823678 0.824104 1 1 0.658311 0.658838 0.824104 0.824383 0.658838 0.65916 0.824383 0.824558 0.824104 0.824383 1 1 0.824383 0.824558 1 1 0.0799905 0.0806759 0.217399 0.213992 0.0806759 0.079408 0.213992 0.216879 0.217399 0.213992 0.354808 0.35593 0.213992 0.216879 0.35593 0.354349 -0.986135 -0.952364 -0.968945 -0.919481 -0.952364 -0.919862 -0.919481 -0.869258 -0.968945 -0.919481 -0.945114 -0.878994 -0.919481 -0.869258 -0.878994 -0.818654 -0.919862 -0.952364 -0.869258 -0.919481 -0.952364 -0.986135 -0.919481 -0.968945 -0.869258 -0.919481 -0.818654 -0.878994 -0.919481 -0.968945 -0.878994 -0.945114 -0.875545 -0.807871 -0.830295 -0.755111 -0.807871 -0.74451 -0.755111 -0.681609 -0.830295 -0.755111 -0.778252 -0.694701 -0.755111 -0.681609 -0.694701 -0.618708 -0.74451 -0.807871 -0.681609 -0.755111 -0.807871 -0.875545 -0.755111 -0.830295 -0.681609 -0.755111 -0.618708 -0.694701 -0.755111 -0.830295 -0.694701 -0.778252 -0.557553 -0.496935 -0.478477 -0.421727 -0.496935 -0.468283 -0.421727 -0.396846 -0.478477 -0.421727 -0.39493 -0.346092 -0.421727 -0.396846 -0.346092 -0.325409 -0.39493 -0.346092 -0.307818 -0.271629 -0.346092 -0.325409 -0.271629 -0.252696 -0.307818 -0.271629 -0.219138 -0.199561 -0.271629 -0.252696 -0.199561 -0.179983 -0.744314 -0.781484 -0.676563 -0.713429 -0.781484 -0.818654 -0.713429 -0.762717 -0.676563 -0.713429 -0.608811 -0.643088 -0.713429 -0.762717 -0.643088 -0.700126 -0.608811 -0.643088 -0.538547 -0.571053 -0.643088 -0.700126 -0.571053 -0.631516 -0.538547 -0.571053 -0.468283 -0.496935 -0.571053 -0.631516 -0.496935 -0.557553 -0.171665 -0.171338 -0.048732 -0.0484651 -0.171338 -0.171084 -0.0484651 -0.0482039 -0.048732 -0.0484651 0.0797751 0.0798828 -0.0484651 -0.0482039 0.0798828 0.0799906 -0.171084 -0.170888 -0.0482039 -0.0478265 -0.170888 -0.170964 -0.0478265 -0.0480731 -0.0482039 -0.0478265 0.0799906 0.0810098 -0.0478265 -0.0480731 0.0810098 0.0801449 -0.171671 -0.172305 -0.048806 -0.0494416 -0.172305 -0.173147 -0.0494416 -0.0502558 -0.048806 -0.0494416 0.079408 0.0788885 -0.0494416 -0.0502558 0.0788885 0.078369 -0.173147 -0.174556 -0.0502558 -0.0519233 -0.174556 -0.176777 -0.0519233 -0.054201 -0.0502558 -0.0519233 0.078369 0.0762012 -0.0519233 -0.054201 0.0762012 0.0740333 -0.468308 -0.41515 -0.38592 -0.327045 -0.41515 -0.361993 -0.327045 -0.28614 -0.38592 -0.327045 -0.292541 -0.239109 -0.327045 -0.28614 -0.239109 -0.210288 -0.818654 -0.781484 -0.762717 -0.713429 -0.781484 -0.744314 -0.713429 -0.676563 -0.762717 -0.713429 -0.700126 -0.643088 -0.713429 -0.676563 -0.643088 -0.608811 -0.700126 -0.643088 -0.631516 -0.571053 -0.643088 -0.608811 -0.571053 -0.538547 -0.631516 -0.571053 -0.557553 -0.496935 -0.571053 -0.538547 -0.496935 -0.468283 -0.286766 -0.207506 -0.217804 -0.145484 -0.207506 -0.128245 -0.145484 -0.0243096 -0.217804 -0.145484 -0.148841 -0.0868784 -0.145484 -0.0243096 -0.0868784 0.0788224 -0.176921 -0.174639 -0.05435 -0.0520165 -0.174639 -0.173168 -0.0520165 -0.0502859 -0.05435 -0.0520165 0.0738892 0.0760988 -0.0520165 -0.0502859 0.0760988 0.0783083 -0.173168 -0.172257 -0.0502859 -0.0493366 -0.172257 -0.171665 -0.0493366 -0.048732 -0.0502859 -0.0493366 0.0783083 0.0790417 -0.0493366 -0.048732 0.0790417 0.0797751 -0.402096 -0.402155 -0.288848 -0.288922 -0.402155 -0.402215 -0.288922 -0.288987 -0.288848 -0.288922 -0.170964 -0.171081 -0.288922 -0.288987 -0.171081 -0.171113 -0.402215 -0.402436 -0.288987 -0.289152 -0.402436 -0.402658 -0.289152 -0.289506 -0.288987 -0.289152 -0.171113 -0.171219 -0.289152 -0.289506 -0.171219 -0.171671 -0.616938 -0.617936 -0.510477 -0.513673 -0.6179